# vtk DataFile Version 3.0
Poisson Solver Output
ASCII
DATASET UNSTRUCTURED_GRID
POINTS 231 double
0 0 0.0
0.1 0 0.0
0.2 0 0.0
0.3 0 0.0
0.4 0 0.0
0.5 0 0.0
0.6 0 0.0
0.7 0 0.0
0.8 0 0.0
0.9 0 0.0
1 0 0.0
1.1 0 0.0
1.2 0 0.0
1.3 0 0.0
1.4 0 0.0
1.5 0 0.0
1.6 0 0.0
1.7 0 0.0
1.8 0 0.0
1.9 0 0.0
2 0 0.0
0 0.1 0.0
0.1 0.1 0.0
0.2 0.1 0.0
0.3 0.1 0.0
0.4 0.1 0.0
0.5 0.1 0.0
0.6 0.1 0.0
0.7 0.1 0.0
0.8 0.1 0.0
0.9 0.1 0.0
1 0.1 0.0
1.1 0.1 0.0
1.2 0.1 0.0
1.3 0.1 0.0
1.4 0.1 0.0
1.5 0.1 0.0
1.6 0.1 0.0
1.7 0.1 0.0
1.8 0.1 0.0
1.9 0.1 0.0
2 0.1 0.0
0 0.2 0.0
0.1 0.2 0.0
0.2 0.2 0.0
0.3 0.2 0.0
0.4 0.2 0.0
0.5 0.2 0.0
0.6 0.2 0.0
0.7 0.2 0.0
0.8 0.2 0.0
0.9 0.2 0.0
1 0.2 0.0
1.1 0.2 0.0
1.2 0.2 0.0
1.3 0.2 0.0
1.4 0.2 0.0
1.5 0.2 0.0
1.6 0.2 0.0
1.7 0.2 0.0
1.8 0.2 0.0
1.9 0.2 0.0
2 0.2 0.0
0 0.3 0.0
0.1 0.3 0.0
0.2 0.3 0.0
0.3 0.3 0.0
0.4 0.3 0.0
0.5 0.3 0.0
0.6 0.3 0.0
0.7 0.3 0.0
0.8 0.3 0.0
0.9 0.3 0.0
1 0.3 0.0
1.1 0.3 0.0
1.2 0.3 0.0
1.3 0.3 0.0
1.4 0.3 0.0
1.5 0.3 0.0
1.6 0.3 0.0
1.7 0.3 0.0
1.8 0.3 0.0
1.9 0.3 0.0
2 0.3 0.0
0 0.4 0.0
0.1 0.4 0.0
0.2 0.4 0.0
0.3 0.4 0.0
0.4 0.4 0.0
0.5 0.4 0.0
0.6 0.4 0.0
0.7 0.4 0.0
0.8 0.4 0.0
0.9 0.4 0.0
1 0.4 0.0
1.1 0.4 0.0
1.2 0.4 0.0
1.3 0.4 0.0
1.4 0.4 0.0
1.5 0.4 0.0
1.6 0.4 0.0
1.7 0.4 0.0
1.8 0.4 0.0
1.9 0.4 0.0
2 0.4 0.0
0 0.5 0.0
0.1 0.5 0.0
0.2 0.5 0.0
0.3 0.5 0.0
0.4 0.5 0.0
0.5 0.5 0.0
0.6 0.5 0.0
0.7 0.5 0.0
0.8 0.5 0.0
0.9 0.5 0.0
1 0.5 0.0
1.1 0.5 0.0
1.2 0.5 0.0
1.3 0.5 0.0
1.4 0.5 0.0
1.5 0.5 0.0
1.6 0.5 0.0
1.7 0.5 0.0
1.8 0.5 0.0
1.9 0.5 0.0
2 0.5 0.0
0 0.6 0.0
0.1 0.6 0.0
0.2 0.6 0.0
0.3 0.6 0.0
0.4 0.6 0.0
0.5 0.6 0.0
0.6 0.6 0.0
0.7 0.6 0.0
0.8 0.6 0.0
0.9 0.6 0.0
1 0.6 0.0
1.1 0.6 0.0
1.2 0.6 0.0
1.3 0.6 0.0
1.4 0.6 0.0
1.5 0.6 0.0
1.6 0.6 0.0
1.7 0.6 0.0
1.8 0.6 0.0
1.9 0.6 0.0
2 0.6 0.0
0 0.7 0.0
0.1 0.7 0.0
0.2 0.7 0.0
0.3 0.7 0.0
0.4 0.7 0.0
0.5 0.7 0.0
0.6 0.7 0.0
0.7 0.7 0.0
0.8 0.7 0.0
0.9 0.7 0.0
1 0.7 0.0
1.1 0.7 0.0
1.2 0.7 0.0
1.3 0.7 0.0
1.4 0.7 0.0
1.5 0.7 0.0
1.6 0.7 0.0
1.7 0.7 0.0
1.8 0.7 0.0
1.9 0.7 0.0
2 0.7 0.0
0 0.8 0.0
0.1 0.8 0.0
0.2 0.8 0.0
0.3 0.8 0.0
0.4 0.8 0.0
0.5 0.8 0.0
0.6 0.8 0.0
0.7 0.8 0.0
0.8 0.8 0.0
0.9 0.8 0.0
1 0.8 0.0
1.1 0.8 0.0
1.2 0.8 0.0
1.3 0.8 0.0
1.4 0.8 0.0
1.5 0.8 0.0
1.6 0.8 0.0
1.7 0.8 0.0
1.8 0.8 0.0
1.9 0.8 0.0
2 0.8 0.0
0 0.9 0.0
0.1 0.9 0.0
0.2 0.9 0.0
0.3 0.9 0.0
0.4 0.9 0.0
0.5 0.9 0.0
0.6 0.9 0.0
0.7 0.9 0.0
0.8 0.9 0.0
0.9 0.9 0.0
1 0.9 0.0
1.1 0.9 0.0
1.2 0.9 0.0
1.3 0.9 0.0
1.4 0.9 0.0
1.5 0.9 0.0
1.6 0.9 0.0
1.7 0.9 0.0
1.8 0.9 0.0
1.9 0.9 0.0
2 0.9 0.0
0 1 0.0
0.1 1 0.0
0.2 1 0.0
0.3 1 0.0
0.4 1 0.0
0.5 1 0.0
0.6 1 0.0
0.7 1 0.0
0.8 1 0.0
0.9 1 0.0
1 1 0.0
1.1 1 0.0
1.2 1 0.0
1.3 1 0.0
1.4 1 0.0
1.5 1 0.0
1.6 1 0.0
1.7 1 0.0
1.8 1 0.0
1.9 1 0.0
2 1 0.0
CELLS 200 1000
4 0 1 22 21
4 1 2 23 22
4 2 3 24 23
4 3 4 25 24
4 4 5 26 25
4 5 6 27 26
4 6 7 28 27
4 7 8 29 28
4 8 9 30 29
4 9 10 31 30
4 10 11 32 31
4 11 12 33 32
4 12 13 34 33
4 13 14 35 34
4 14 15 36 35
4 15 16 37 36
4 16 17 38 37
4 17 18 39 38
4 18 19 40 39
4 19 20 41 40
4 21 22 43 42
4 22 23 44 43
4 23 24 45 44
4 24 25 46 45
4 25 26 47 46
4 26 27 48 47
4 27 28 49 48
4 28 29 50 49
4 29 30 51 50
4 30 31 52 51
4 31 32 53 52
4 32 33 54 53
4 33 34 55 54
4 34 35 56 55
4 35 36 57 56
4 36 37 58 57
4 37 38 59 58
4 38 39 60 59
4 39 40 61 60
4 40 41 62 61
4 42 43 64 63
4 43 44 65 64
4 44 45 66 65
4 45 46 67 66
4 46 47 68 67
4 47 48 69 68
4 48 49 70 69
4 49 50 71 70
4 50 51 72 71
4 51 52 73 72
4 52 53 74 73
4 53 54 75 74
4 54 55 76 75
4 55 56 77 76
4 56 57 78 77
4 57 58 79 78
4 58 59 80 79
4 59 60 81 80
4 60 61 82 81
4 61 62 83 82
4 63 64 85 84
4 64 65 86 85
4 65 66 87 86
4 66 67 88 87
4 67 68 89 88
4 68 69 90 89
4 69 70 91 90
4 70 71 92 91
4 71 72 93 92
4 72 73 94 93
4 73 74 95 94
4 74 75 96 95
4 75 76 97 96
4 76 77 98 97
4 77 78 99 98
4 78 79 100 99
4 79 80 101 100
4 80 81 102 101
4 81 82 103 102
4 82 83 104 103
4 84 85 106 105
4 85 86 107 106
4 86 87 108 107
4 87 88 109 108
4 88 89 110 109
4 89 90 111 110
4 90 91 112 111
4 91 92 113 112
4 92 93 114 113
4 93 94 115 114
4 94 95 116 115
4 95 96 117 116
4 96 97 118 117
4 97 98 119 118
4 98 99 120 119
4 99 100 121 120
4 100 101 122 121
4 101 102 123 122
4 102 103 124 123
4 103 104 125 124
4 105 106 127 126
4 106 107 128 127
4 107 108 129 128
4 108 109 130 129
4 109 110 131 130
4 110 111 132 131
4 111 112 133 132
4 112 113 134 133
4 113 114 135 134
4 114 115 136 135
4 115 116 137 136
4 116 117 138 137
4 117 118 139 138
4 118 119 140 139
4 119 120 141 140
4 120 121 142 141
4 121 122 143 142
4 122 123 144 143
4 123 124 145 144
4 124 125 146 145
4 126 127 148 147
4 127 128 149 148
4 128 129 150 149
4 129 130 151 150
4 130 131 152 151
4 131 132 153 152
4 132 133 154 153
4 133 134 155 154
4 134 135 156 155
4 135 136 157 156
4 136 137 158 157
4 137 138 159 158
4 138 139 160 159
4 139 140 161 160
4 140 141 162 161
4 141 142 163 162
4 142 143 164 163
4 143 144 165 164
4 144 145 166 165
4 145 146 167 166
4 147 148 169 168
4 148 149 170 169
4 149 150 171 170
4 150 151 172 171
4 151 152 173 172
4 152 153 174 173
4 153 154 175 174
4 154 155 176 175
4 155 156 177 176
4 156 157 178 177
4 157 158 179 178
4 158 159 180 179
4 159 160 181 180
4 160 161 182 181
4 161 162 183 182
4 162 163 184 183
4 163 164 185 184
4 164 165 186 185
4 165 166 187 186
4 166 167 188 187
4 168 169 190 189
4 169 170 191 190
4 170 171 192 191
4 171 172 193 192
4 172 173 194 193
4 173 174 195 194
4 174 175 196 195
4 175 176 197 196
4 176 177 198 197
4 177 178 199 198
4 178 179 200 199
4 179 180 201 200
4 180 181 202 201
4 181 182 203 202
4 182 183 204 203
4 183 184 205 204
4 184 185 206 205
4 185 186 207 206
4 186 187 208 207
4 187 188 209 208
4 189 190 211 210
4 190 191 212 211
4 191 192 213 212
4 192 193 214 213
4 193 194 215 214
4 194 195 216 215
4 195 196 217 216
4 196 197 218 217
4 197 198 219 218
4 198 199 220 219
4 199 200 221 220
4 200 201 222 221
4 201 202 223 222
4 202 203 224 223
4 203 204 225 224
4 204 205 226 225
4 205 206 227 226
4 206 207 228 227
4 207 208 229 228
4 208 209 230 229
CELL_TYPES 200
9
9
9
9
9
9
9
9
9
9
9
9
9
9
9
9
9
9
9
9
9
9
9
9
9
9
9
9
9
9
9
9
9
9
9
9
9
9
9
9
9
9
9
9
9
9
9
9
9
9
9
9
9
9
9
9
9
9
9
9
9
9
9
9
9
9
9
9
9
9
9
9
9
9
9
9
9
9
9
9
9
9
9
9
9
9
9
9
9
9
9
9
9
9
9
9
9
9
9
9
9
9
9
9
9
9
9
9
9
9
9
9
9
9
9
9
9
9
9
9
9
9
9
9
9
9
9
9
9
9
9
9
9
9
9
9
9
9
9
9
9
9
9
9
9
9
9
9
9
9
9
9
9
9
9
9
9
9
9
9
9
9
9
9
9
9
9
9
9
9
9
9
9
9
9
9
9
9
9
9
9
9
9
9
9
9
9
9
9
9
9
9
9
9
9
9
9
9
9
9
POINT_DATA 231
SCALARS u double 1
LOOKUP_TABLE default
1.00000000e+00
1.02243023e+00
1.04845567e+00
1.07798409e+00
1.11091365e+00
1.14713432e+00
1.18652915e+00
1.22897563e+00
1.27434709e+00
1.32251388e+00
1.37334468e+00
1.42670757e+00
1.48247108e+00
1.54050509e+00
1.60068170e+00
1.66287584e+00
1.72696595e+00
1.79283438e+00
1.86036785e+00
1.92945767e+00
2.00000000e+00
1.00000000e+00
1.02243023e+00
1.04845567e+00
1.07798409e+00
1.11091365e+00
1.14713432e+00
1.18652915e+00
1.22897563e+00
1.27434709e+00
1.32251388e+00
1.37334468e+00
1.42670757e+00
1.48247108e+00
1.54050509e+00
1.60068170e+00
1.66287584e+00
1.72696595e+00
1.79283438e+00
1.86036785e+00
1.92945767e+00
2.00000000e+00
1.00000000e+00
1.02243023e+00
1.04845567e+00
1.07798409e+00
1.11091365e+00
1.14713432e+00
1.18652915e+00
1.22897563e+00
1.27434709e+00
1.32251388e+00
1.37334468e+00
1.42670757e+00
1.48247108e+00
1.54050509e+00
1.60068170e+00
1.66287584e+00
1.72696595e+00
1.79283438e+00
1.86036785e+00
1.92945767e+00
2.00000000e+00
1.00000000e+00
1.02243023e+00
1.04845567e+00
1.07798409e+00
1.11091365e+00
1.14713432e+00
1.18652915e+00
1.22897563e+00
1.27434709e+00
1.32251388e+00
1.37334468e+00
1.42670757e+00
1.48247108e+00
1.54050509e+00
1.60068170e+00
1.66287584e+00
1.72696595e+00
1.79283438e+00
1.86036785e+00
1.92945767e+00
2.00000000e+00
1.00000000e+00
1.02243023e+00
1.04845567e+00
1.07798409e+00
1.11091365e+00
1.14713432e+00
1.18652915e+00
1.22897563e+00
1.27434709e+00
1.32251388e+00
1.37334468e+00
1.42670757e+00
1.48247108e+00
1.54050509e+00
1.60068170e+00
1.66287584e+00
1.72696595e+00
1.79283438e+00
1.86036785e+00
1.92945767e+00
2.00000000e+00
1.00000000e+00
1.02243023e+00
1.04845567e+00
1.07798409e+00
1.11091365e+00
1.14713432e+00
1.18652915e+00
1.22897563e+00
1.27434709e+00
1.32251388e+00
1.37334468e+00
1.42670757e+00
1.48247108e+00
1.54050509e+00
1.60068170e+00
1.66287584e+00
1.72696595e+00
1.79283438e+00
1.86036785e+00
1.92945767e+00
2.00000000e+00
1.00000000e+00
1.02243023e+00
1.04845567e+00
1.07798409e+00
1.11091365e+00
1.14713432e+00
1.18652915e+00
1.22897563e+00
1.27434709e+00
1.32251388e+00
1.37334468e+00
1.42670757e+00
1.48247108e+00
1.54050509e+00
1.60068170e+00
1.66287584e+00
1.72696595e+00
1.79283438e+00
1.86036785e+00
1.92945767e+00
2.00000000e+00
1.00000000e+00
1.02243023e+00
1.04845567e+00
1.07798409e+00
1.11091365e+00
1.14713432e+00
1.18652915e+00
1.22897563e+00
1.27434709e+00
1.32251388e+00
1.37334468e+00
1.42670757e+00
1.48247108e+00
1.54050509e+00
1.60068170e+00
1.66287584e+00
1.72696595e+00
1.79283438e+00
1.86036785e+00
1.92945767e+00
2.00000000e+00
1.00000000e+00
1.02243023e+00
1.04845567e+00
1.07798409e+00
1.11091365e+00
1.14713432e+00
1.18652915e+00
1.22897563e+00
1.27434709e+00
1.32251388e+00
1.37334468e+00
1.42670757e+00
1.48247108e+00
1.54050509e+00
1.60068170e+00
1.66287584e+00
1.72696595e+00
1.79283438e+00
1.86036785e+00
1.92945767e+00
2.00000000e+00
1.00000000e+00
1.02243023e+00
1.04845567e+00
1.07798409e+00
1.11091365e+00
1.14713432e+00
1.18652915e+00
1.22897563e+00
1.27434709e+00
1.32251388e+00
1.37334468e+00
1.42670757e+00
1.48247108e+00
1.54050509e+00
1.60068170e+00
1.66287584e+00
1.72696595e+00
1.79283438e+00
1.86036785e+00
1.92945767e+00
2.00000000e+00
1.00000000e+00
1.02243023e+00
1.04845567e+00
1.07798409e+00
1.11091365e+00
1.14713432e+00
1.18652915e+00
1.22897563e+00
1.27434709e+00
1.32251388e+00
1.37334468e+00
1.42670757e+00
1.48247108e+00
1.54050509e+00
1.60068170e+00
1.66287584e+00
1.72696595e+00
1.79283438e+00
1.86036785e+00
1.92945767e+00
2.00000000e+00
